LAMMPS homopolymer structure file 

4 atoms 
3 bonds 
2 angles 
1 impropers 

1 atom types 
1 bond types
1 angle types
1 improper types 

-36.840315 36.840315 xlo xhi 
-36.840315 36.840315 ylo yhi 
-36.840315 36.840315 zlo zhi 

Masses 

1 1.000000 

Atoms 

1 1 1 0.000000 -1.000000 -1.000000 -1.000000 
2 1 1 0.000000 0.000000 -1.000000 -1.000000 
3 1 1 0.000000 0.000000 0.000000 -1.000000 
4 1 1 0.000000 -1.000000 0.000000 -1.000000 

Bonds 

1 1 1 2 
2 1 2 3 
3 1 3 4 

Angles 

1 1 1 2 3 
2 1 2 3 4 

Impropers 

1 1 1 2 3 4

