LAMMPS (7 Aug 2019)
OMP_NUM_THREADS environment is not set. Defaulting to 1 thread. (../comm.cpp:93)
  using 1 OpenMP thread(s) per MPI task
variable        rseed equal   28

#  ----    Settings  ----
variable        T   equal   1.0
units           lj
atom_style      full
boundary        p   p   p
special_bonds   lj 0.0 1.0 1.0

read_data       data.homopolymer
  orthogonal box = (-36.8403 -36.8403 -36.8403) to (36.8403 36.8403 36.8403)
  1 by 1 by 1 MPI processor grid
  reading atoms ...
  4 atoms
  scanning bonds ...
  1 = max bonds/atom
  scanning angles ...
  1 = max angles/atom
  scanning impropers ...
  1 = max impropers/atom
  reading bonds ...
  3 bonds
  reading angles ...
  2 angles
  reading impropers ...
  1 impropers
  2 = max # of 1-2 neighbors
  1 = max # of 1-3 neighbors
  2 = max # of 1-4 neighbors
  3 = max # of special neighbors
  special bonds CPU = 0.000276683 secs
  read_data CPU = 0.00296269 secs
neighbor        0.4 bin
neigh_modify    every 1 delay 1
atom_modify     sort 0 0.0

#   ----    Force Field     ----
bond_style      fene/expand
bond_coeff      1 30.0 1.5 1.0 1.0 1.4
angle_style     harmonic
angle_coeff     1 1.5 2.0
improper_style  dihedral/fourier
improper_coeff  1 1 10.0 1 -70.0
pair_style      hybrid/overlay mie/cut 2.6
pair_coeff      * * mie/cut 1.0 1.0 16.0 8.0 2.6
pair_modify     tabinner 0.0000000001 shift yes

thermo          1
thermo_style    custom time temp pe etotal epair ebond eangle press vol
thermo_modify   norm no flush yes

#   ----    spherical confinement     ----
#region          nucleus sphere 0.0 0.0 0.0 19.6889370749 side in
#fix             wall all wall/region nucleus lj126 1.0 1.0 1.12

fix             1 all nve

minimize        1.0e-4 1.0e-6 100 1000
WARNING: Using 'neigh_modify every 1 delay 0 check yes' setting during minimization (../min.cpp:168)
Neighbor list info ...
  update every 1 steps, delay 0 steps, check yes
  max neighbors/atom: 2000, page size: 100000
  master list distance cutoff = 3
  ghost atom cutoff = 3
  binsize = 1.5, bins = 50 50 50
  1 neighbor lists, perpetual/occasional/extra = 1 0 0
  (1) pair mie/cut, perpetual
      attributes: half, newton on
      pair build: half/bin/newton
      stencil: half/bin/3d/newton
      bin: standard
WARNING: Communication cutoff 3 is shorter than a bond length based estimate of 5.7325. This may lead to errors. (../comm.cpp:685)
Per MPI rank memory allocation (min/avg/max) = 1.072 | 1.072 | 1.072 Mbytes
Time Temp PotEng TotEng E_pair E_bond E_angle Press Volume 
           0            0    712356.55    712356.55  -0.46300637    712336.52    7.0768719   -17.844716       400000 
       0.005            0    173638.56    173638.56  -0.61511465    173618.43    7.3214022   -3.6829064       400000 
        0.01            0    50161.568    50161.568  -0.77278741    50141.339    7.5812295  -0.91339624       400000 
       0.015            0    16400.437    16400.437  -0.94187575    16380.091    7.8669372  -0.25878716       400000 
        0.02            0    2365.8434    2365.8434   -1.2834645     2345.173    8.5339746 -0.028443625       400000 
       0.025            0    486.62618    486.62618   -0.4755923    464.35332    9.3321236 -0.0042135113       400000 
        0.03            0    143.43728    143.43728    24.264266    94.967016    10.841424 8.8580893e-05       400000 
       0.035            0    122.97164    122.97164    11.260501    86.883468    12.169728 -4.5770612e-05       400000 
        0.04            0    119.24965    119.24965     18.58466    75.480963    13.308924 0.00017676215       400000 
       0.045            0    113.21533    113.21533    13.634474    75.550725    15.264948 9.5419322e-05       400000 
        0.05            0    102.48465    102.48465    4.7457617    75.153671     15.46832 -4.9057735e-05       400000 
       0.055            0    96.596552    96.596552    12.002335    67.808994    16.678859 0.00015456045       400000 
        0.06            0    92.916367    92.916367    3.0831817      72.2753    17.280619 -4.9455134e-05       400000 
       0.065            0    92.425762    92.425762    3.1965843    71.210704    17.682444 -3.8734581e-05       400000 
        0.07            0    91.722252    91.722252    4.7239637    68.251992    18.343128 2.1370474e-05       400000 
       0.075            0    91.330723    91.330723    2.9138161    68.898158    19.202547 -1.4796888e-05       400000 
        0.08            0    90.767043    90.767043    1.7374528    68.075931    20.890788 -2.9881271e-05       400000 
       0.085            0    90.626709    90.626709    3.1443385    66.684363    20.791701 1.0614175e-05       400000 
        0.09            0    90.610794    90.610794    3.3531182    66.527893    20.729265 1.6588654e-05       400000 
       0.095            0    90.603791    90.603791     2.509196    67.426116    20.667847 -7.008212e-06       400000 
Loop time of 0.00215931 on 1 procs for 19 steps with 4 atoms

55.9% CPU use with 1 MPI tasks x 1 OpenMP threads

Minimization stats:
  Stopping criterion = energy tolerance
  Energy initial, next-to-last, final = 
         712356.552694      90.6107937016      90.6037911704
  Force two-norm initial, final = 1.74842e+07 30.4318
  Force max component initial, final = 7.1379e+06 21.3452
  Final line search alpha, max atom move = 0.000674691 0.0144014
  Iterations, force evaluations = 19 64

MPI task timing breakdown:
Section |  min time  |  avg time  |  max time  |%varavg| %total
---------------------------------------------------------------
Pair    | 0.00020883 | 0.00020883 | 0.00020883 |   0.0 |  9.67
Bond    | 0.00015773 | 0.00015773 | 0.00015773 |   0.0 |  7.30
Neigh   | 0.00060741 | 0.00060741 | 0.00060741 |   0.0 | 28.13
Comm    | 2.5688e-05 | 2.5688e-05 | 2.5688e-05 |   0.0 |  1.19
Output  | 0.00098081 | 0.00098081 | 0.00098081 |   0.0 | 45.42
Modify  | 0          | 0          | 0          |   0.0 |  0.00
Other   |            | 0.0001788  |            |       |  8.28

Nlocal:    4 ave 4 max 4 min
Histogram: 1 0 0 0 0 0 0 0 0 0
Nghost:    0 ave 0 max 0 min
Histogram: 1 0 0 0 0 0 0 0 0 0
Neighs:    3 ave 3 max 3 min
Histogram: 1 0 0 0 0 0 0 0 0 0

Total # of neighbors = 3
Ave neighs/atom = 0.75
Ave special neighs/atom = 3
Neighbor list builds = 4
Dangerous builds = 0
velocity        all create ${T} ${rseed} rot yes mom yes dist gaussian
velocity        all create 1 ${rseed} rot yes mom yes dist gaussian
velocity        all create 1 28 rot yes mom yes dist gaussian
reset_timestep  0
fix             bias all colvars input.colvars output output
fix_modify      bias energy yes


#    ----    Normal temperature simulation     ----
dump            2 all dcd 50 DUMP_FILE.dcd
dump_modify     2 unwrap yes

timestep        0.0001

fix             3 all langevin ${T} ${T} 10.0 ${rseed}
fix             3 all langevin 1 ${T} 10.0 ${rseed}
fix             3 all langevin 1 1 10.0 ${rseed}
fix             3 all langevin 1 1 10.0 28
run             100
WARNING: Communication cutoff 3 is shorter than a bond length based estimate of 5.7325. This may lead to errors. (../comm.cpp:685)
colvars: Creating proxy instance
colvars: ----------------------------------------------------------------------
colvars: Initializing the collective variables module, version "2019-08-05".
colvars: Please cite Fiorin et al, Mol Phys 2013:
colvars:  http://dx.doi.org/10.1080/00268976.2013.813594
colvars: in any publication based on this calculation.
colvars: Using LAMMPS interface, version "2019-08-01".
colvars: ----------------------------------------------------------------------
colvars: Reading new configuration from file "input.colvars":
colvars: # smp = on [default]
colvars: # colvarsTrajFrequency = 1
colvars: # colvarsRestartFrequency = 0 [default]
colvars: # scriptedColvarForces = off [default]
colvars: # scriptingAfterBiases = off [default]
colvars: ----------------------------------------------------------------------
colvars:   Initializing a new collective variable.
colvars:   # name = "d1_2"
colvars:   Initializing a new "distance" component.
colvars:     # name = "" [default]
colvars:     # componentCoeff = 1
colvars:     # componentExp = 1 [default]
colvars:     # period = 0 [default]
colvars:     # wrapAround = 0 [default]
colvars:     # forceNoPBC = off [default]
colvars:     # scalable = on [default]
colvars:       Initializing atom group "group1".
colvars:       # name = "" [default]
colvars:       # centerReference = off [default]
colvars:       # rotateReference = off [default]
colvars:       # atomsOfGroup = "" [default]
colvars:       # indexGroup = "" [default]
colvars:       # psfSegID =  [default]
colvars:       # atomsFile = "" [default]
colvars:       # dummyAtom = ( 0 , 0 , 0 ) [default]
colvars:       # enableForces = on [default]
colvars:       # enableFitGradients = on [default]
colvars:       # printAtomIDs = off [default]
colvars:       Atom group "group1" defined with 1 atoms requested.
colvars:       Initializing atom group "group2".
colvars:       # name = "" [default]
colvars:       # centerReference = off [default]
colvars:       # rotateReference = off [default]
colvars:       # atomsOfGroup = "" [default]
colvars:       # indexGroup = "" [default]
colvars:       # psfSegID =  [default]
colvars:       # atomsFile = "" [default]
colvars:       # dummyAtom = ( 0 , 0 , 0 ) [default]
colvars:       # enableForces = on [default]
colvars:       # enableFitGradients = on [default]
colvars:       # printAtomIDs = off [default]
colvars:       Atom group "group2" defined with 1 atoms requested.
colvars:     # oneSiteSystemForce = off [default]
colvars:     # oneSiteTotalForce = off [default]
colvars:   All components initialized.
colvars:   # timeStepFactor = 1 [default]
colvars:   # width = 1 [default]
colvars:   # lowerBoundary = 0 [default]
colvars:   # upperBoundary = 0 [default]
colvars:   # expandBoundaries = off [default]
colvars:   # extendedLagrangian = off [default]
colvars:   # outputValue = on [default]
colvars:   # outputVelocity = off [default]
colvars:   # outputTotalForce = off [default]
colvars:   # outputAppliedForce = off [default]
colvars:   # subtractAppliedForce = off [default]
colvars:   # runAve = off [default]
colvars:   # corrFunc = off [default]
colvars: ----------------------------------------------------------------------
colvars:   Initializing a new collective variable.
colvars:   # name = "d1_3"
colvars:   Initializing a new "distance" component.
colvars:     # name = "" [default]
colvars:     # componentCoeff = 1
colvars:     # componentExp = 1 [default]
colvars:     # period = 0 [default]
colvars:     # wrapAround = 0 [default]
colvars:     # forceNoPBC = off [default]
colvars:     # scalable = on [default]
colvars:       Initializing atom group "group1".
colvars:       # name = "" [default]
colvars:       # centerReference = off [default]
colvars:       # rotateReference = off [default]
colvars:       # atomsOfGroup = "" [default]
colvars:       # indexGroup = "" [default]
colvars:       # psfSegID =  [default]
colvars:       # atomsFile = "" [default]
colvars:       # dummyAtom = ( 0 , 0 , 0 ) [default]
colvars:       # enableForces = on [default]
colvars:       # enableFitGradients = on [default]
colvars:       # printAtomIDs = off [default]
colvars:       Atom group "group1" defined with 1 atoms requested.
colvars:       Initializing atom group "group2".
colvars:       # name = "" [default]
colvars:       # centerReference = off [default]
colvars:       # rotateReference = off [default]
colvars:       # atomsOfGroup = "" [default]
colvars:       # indexGroup = "" [default]
colvars:       # psfSegID =  [default]
colvars:       # atomsFile = "" [default]
colvars:       # dummyAtom = ( 0 , 0 , 0 ) [default]
colvars:       # enableForces = on [default]
colvars:       # enableFitGradients = on [default]
colvars:       # printAtomIDs = off [default]
colvars:       Atom group "group2" defined with 1 atoms requested.
colvars:     # oneSiteSystemForce = off [default]
colvars:     # oneSiteTotalForce = off [default]
colvars:   All components initialized.
colvars:   # timeStepFactor = 1 [default]
colvars:   # width = 1 [default]
colvars:   # lowerBoundary = 0 [default]
colvars:   # upperBoundary = 0 [default]
colvars:   # expandBoundaries = off [default]
colvars:   # extendedLagrangian = off [default]
colvars:   # outputValue = on [default]
colvars:   # outputVelocity = off [default]
colvars:   # outputTotalForce = off [default]
colvars:   # outputAppliedForce = off [default]
colvars:   # subtractAppliedForce = off [default]
colvars:   # runAve = off [default]
colvars:   # corrFunc = off [default]
colvars: ----------------------------------------------------------------------
colvars:   Initializing a new collective variable.
colvars:   # name = "d1_4"
colvars:   Initializing a new "distance" component.
colvars:     # name = "" [default]
colvars:     # componentCoeff = 1
colvars:     # componentExp = 1 [default]
colvars:     # period = 0 [default]
colvars:     # wrapAround = 0 [default]
colvars:     # forceNoPBC = off [default]
colvars:     # scalable = on [default]
colvars:       Initializing atom group "group1".
colvars:       # name = "" [default]
colvars:       # centerReference = off [default]
colvars:       # rotateReference = off [default]
colvars:       # atomsOfGroup = "" [default]
colvars:       # indexGroup = "" [default]
colvars:       # psfSegID =  [default]
colvars:       # atomsFile = "" [default]
colvars:       # dummyAtom = ( 0 , 0 , 0 ) [default]
colvars:       # enableForces = on [default]
colvars:       # enableFitGradients = on [default]
colvars:       # printAtomIDs = off [default]
colvars:       Atom group "group1" defined with 1 atoms requested.
colvars:       Initializing atom group "group2".
colvars:       # name = "" [default]
colvars:       # centerReference = off [default]
colvars:       # rotateReference = off [default]
colvars:       # atomsOfGroup = "" [default]
colvars:       # indexGroup = "" [default]
colvars:       # psfSegID =  [default]
colvars:       # atomsFile = "" [default]
colvars:       # dummyAtom = ( 0 , 0 , 0 ) [default]
colvars:       # enableForces = on [default]
colvars:       # enableFitGradients = on [default]
colvars:       # printAtomIDs = off [default]
colvars:       Atom group "group2" defined with 1 atoms requested.
colvars:     # oneSiteSystemForce = off [default]
colvars:     # oneSiteTotalForce = off [default]
colvars:   All components initialized.
colvars:   # timeStepFactor = 1 [default]
colvars:   # width = 1 [default]
colvars:   # lowerBoundary = 0 [default]
colvars:   # upperBoundary = 0 [default]
colvars:   # expandBoundaries = off [default]
colvars:   # extendedLagrangian = off [default]
colvars:   # outputValue = on [default]
colvars:   # outputVelocity = off [default]
colvars:   # outputTotalForce = off [default]
colvars:   # outputAppliedForce = off [default]
colvars:   # subtractAppliedForce = off [default]
colvars:   # runAve = off [default]
colvars:   # corrFunc = off [default]
colvars: ----------------------------------------------------------------------
colvars:   Initializing a new collective variable.
colvars:   # name = "d2_3"
colvars:   Initializing a new "distance" component.
colvars:     # name = "" [default]
colvars:     # componentCoeff = 1
colvars:     # componentExp = 1 [default]
colvars:     # period = 0 [default]
colvars:     # wrapAround = 0 [default]
colvars:     # forceNoPBC = off [default]
colvars:     # scalable = on [default]
colvars:       Initializing atom group "group1".
colvars:       # name = "" [default]
colvars:       # centerReference = off [default]
colvars:       # rotateReference = off [default]
colvars:       # atomsOfGroup = "" [default]
colvars:       # indexGroup = "" [default]
colvars:       # psfSegID =  [default]
colvars:       # atomsFile = "" [default]
colvars:       # dummyAtom = ( 0 , 0 , 0 ) [default]
colvars:       # enableForces = on [default]
colvars:       # enableFitGradients = on [default]
colvars:       # printAtomIDs = off [default]
colvars:       Atom group "group1" defined with 1 atoms requested.
colvars:       Initializing atom group "group2".
colvars:       # name = "" [default]
colvars:       # centerReference = off [default]
colvars:       # rotateReference = off [default]
colvars:       # atomsOfGroup = "" [default]
colvars:       # indexGroup = "" [default]
colvars:       # psfSegID =  [default]
colvars:       # atomsFile = "" [default]
colvars:       # dummyAtom = ( 0 , 0 , 0 ) [default]
colvars:       # enableForces = on [default]
colvars:       # enableFitGradients = on [default]
colvars:       # printAtomIDs = off [default]
colvars:       Atom group "group2" defined with 1 atoms requested.
colvars:     # oneSiteSystemForce = off [default]
colvars:     # oneSiteTotalForce = off [default]
colvars:   All components initialized.
colvars:   # timeStepFactor = 1 [default]
colvars:   # width = 1 [default]
colvars:   # lowerBoundary = 0 [default]
colvars:   # upperBoundary = 0 [default]
colvars:   # expandBoundaries = off [default]
colvars:   # extendedLagrangian = off [default]
colvars:   # outputValue = on [default]
colvars:   # outputVelocity = off [default]
colvars:   # outputTotalForce = off [default]
colvars:   # outputAppliedForce = off [default]
colvars:   # subtractAppliedForce = off [default]
colvars:   # runAve = off [default]
colvars:   # corrFunc = off [default]
colvars: ----------------------------------------------------------------------
colvars:   Initializing a new collective variable.
colvars:   # name = "d2_4"
colvars:   Initializing a new "distance" component.
colvars:     # name = "" [default]
colvars:     # componentCoeff = 1
colvars:     # componentExp = 1 [default]
colvars:     # period = 0 [default]
colvars:     # wrapAround = 0 [default]
colvars:     # forceNoPBC = off [default]
colvars:     # scalable = on [default]
colvars:       Initializing atom group "group1".
colvars:       # name = "" [default]
colvars:       # centerReference = off [default]
colvars:       # rotateReference = off [default]
colvars:       # atomsOfGroup = "" [default]
colvars:       # indexGroup = "" [default]
colvars:       # psfSegID =  [default]
colvars:       # atomsFile = "" [default]
colvars:       # dummyAtom = ( 0 , 0 , 0 ) [default]
colvars:       # enableForces = on [default]
colvars:       # enableFitGradients = on [default]
colvars:       # printAtomIDs = off [default]
colvars:       Atom group "group1" defined with 1 atoms requested.
colvars:       Initializing atom group "group2".
colvars:       # name = "" [default]
colvars:       # centerReference = off [default]
colvars:       # rotateReference = off [default]
colvars:       # atomsOfGroup = "" [default]
colvars:       # indexGroup = "" [default]
colvars:       # psfSegID =  [default]
colvars:       # atomsFile = "" [default]
colvars:       # dummyAtom = ( 0 , 0 , 0 ) [default]
colvars:       # enableForces = on [default]
colvars:       # enableFitGradients = on [default]
colvars:       # printAtomIDs = off [default]
colvars:       Atom group "group2" defined with 1 atoms requested.
colvars:     # oneSiteSystemForce = off [default]
colvars:     # oneSiteTotalForce = off [default]
colvars:   All components initialized.
colvars:   # timeStepFactor = 1 [default]
colvars:   # width = 1 [default]
colvars:   # lowerBoundary = 0 [default]
colvars:   # upperBoundary = 0 [default]
colvars:   # expandBoundaries = off [default]
colvars:   # extendedLagrangian = off [default]
colvars:   # outputValue = on [default]
colvars:   # outputVelocity = off [default]
colvars:   # outputTotalForce = off [default]
colvars:   # outputAppliedForce = off [default]
colvars:   # subtractAppliedForce = off [default]
colvars:   # runAve = off [default]
colvars:   # corrFunc = off [default]
colvars: ----------------------------------------------------------------------
colvars:   Initializing a new collective variable.
colvars:   # name = "d3_4"
colvars:   Initializing a new "distance" component.
colvars:     # name = "" [default]
colvars:     # componentCoeff = 1
colvars:     # componentExp = 1 [default]
colvars:     # period = 0 [default]
colvars:     # wrapAround = 0 [default]
colvars:     # forceNoPBC = off [default]
colvars:     # scalable = on [default]
colvars:       Initializing atom group "group1".
colvars:       # name = "" [default]
colvars:       # centerReference = off [default]
colvars:       # rotateReference = off [default]
colvars:       # atomsOfGroup = "" [default]
colvars:       # indexGroup = "" [default]
colvars:       # psfSegID =  [default]
colvars:       # atomsFile = "" [default]
colvars:       # dummyAtom = ( 0 , 0 , 0 ) [default]
colvars:       # enableForces = on [default]
colvars:       # enableFitGradients = on [default]
colvars:       # printAtomIDs = off [default]
colvars:       Atom group "group1" defined with 1 atoms requested.
colvars:       Initializing atom group "group2".
colvars:       # name = "" [default]
colvars:       # centerReference = off [default]
colvars:       # rotateReference = off [default]
colvars:       # atomsOfGroup = "" [default]
colvars:       # indexGroup = "" [default]
colvars:       # psfSegID =  [default]
colvars:       # atomsFile = "" [default]
colvars:       # dummyAtom = ( 0 , 0 , 0 ) [default]
colvars:       # enableForces = on [default]
colvars:       # enableFitGradients = on [default]
colvars:       # printAtomIDs = off [default]
colvars:       Atom group "group2" defined with 1 atoms requested.
colvars:     # oneSiteSystemForce = off [default]
colvars:     # oneSiteTotalForce = off [default]
colvars:   All components initialized.
colvars:   # timeStepFactor = 1 [default]
colvars:   # width = 1 [default]
colvars:   # lowerBoundary = 0 [default]
colvars:   # upperBoundary = 0 [default]
colvars:   # expandBoundaries = off [default]
colvars:   # extendedLagrangian = off [default]
colvars:   # outputValue = on [default]
colvars:   # outputVelocity = off [default]
colvars:   # outputTotalForce = off [default]
colvars:   # outputAppliedForce = off [default]
colvars:   # subtractAppliedForce = off [default]
colvars:   # runAve = off [default]
colvars:   # corrFunc = off [default]
colvars: ----------------------------------------------------------------------
colvars: Collective variables initialized, 6 in total.
colvars: No collective variables biases were defined.
colvars: ----------------------------------------------------------------------
colvars: Collective variables module (re)initialized.
colvars: ----------------------------------------------------------------------
colvars: The restart output state file will be "rest.colvars.state".
colvars: The final output state file will be "output.colvars.state".
colvars: Writing to colvar trajectory file "output.colvars.traj".
colvars: Re-initialized atom group for variable "d1_2":0/0. 1 atoms: total mass = 1, total charge = 0.
colvars: Re-initialized atom group for variable "d1_2":0/1. 1 atoms: total mass = 1, total charge = 0.
colvars: Re-initialized atom group for variable "d1_3":0/0. 1 atoms: total mass = 1, total charge = 0.
colvars: Re-initialized atom group for variable "d1_3":0/1. 1 atoms: total mass = 1, total charge = 0.
colvars: Re-initialized atom group for variable "d1_4":0/0. 1 atoms: total mass = 1, total charge = 0.
colvars: Re-initialized atom group for variable "d1_4":0/1. 1 atoms: total mass = 1, total charge = 0.
colvars: Re-initialized atom group for variable "d2_3":0/0. 1 atoms: total mass = 1, total charge = 0.
colvars: Re-initialized atom group for variable "d2_3":0/1. 1 atoms: total mass = 1, total charge = 0.
colvars: Re-initialized atom group for variable "d2_4":0/0. 1 atoms: total mass = 1, total charge = 0.
colvars: Re-initialized atom group for variable "d2_4":0/1. 1 atoms: total mass = 1, total charge = 0.
colvars: Re-initialized atom group for variable "d3_4":0/0. 1 atoms: total mass = 1, total charge = 0.
colvars: Re-initialized atom group for variable "d3_4":0/1. 1 atoms: total mass = 1, total charge = 0.
Per MPI rank memory allocation (min/avg/max) = 1.072 | 1.072 | 1.072 Mbytes
Time Temp PotEng TotEng E_pair E_bond E_angle Press Volume 
           0            1    90.603791    95.103791     2.509196    67.426116    20.667847 4.9178795e-07       400000 
      0.0001   0.99989894    90.602015     95.10156    2.5219541    67.410097    20.669264 8.8702395e-07       400000 
      0.0002    1.0001185    90.600698    95.101232    2.5349106    67.394332    20.670687 1.2859349e-06       400000 
      0.0003    1.0023547    90.599839    95.110435    2.5480123    67.378912    20.672073 1.6990666e-06       400000 
      0.0004    1.0078567    90.599428    95.134783    2.5613073    67.363756    20.673448 2.1374048e-06       400000 
      0.0005    1.0124946    90.599485    95.155711    2.5748278    67.348898    20.674767 2.5704159e-06       400000 
      0.0006    1.0146231    90.600001    95.165805    2.5885656    67.334294    20.676072 2.9859415e-06       400000 
      0.0007     1.014998    90.600972    95.168463    2.6025065    67.319945     20.67737 3.3892629e-06       400000 
      0.0008    1.0129101    90.602415    95.160511    2.6166813     67.30585    20.678652 3.7759822e-06       400000 
      0.0009    1.0105497    90.604325    95.151799    2.6309621    67.292128     20.67992 4.1587683e-06       400000 
       0.001    1.0113101    90.606712    95.157607    2.6453994    67.278747    20.681164 4.5643969e-06       400000 
      0.0011    1.0115427    90.609577    95.161519    2.6599787    67.265721    20.682386 4.9649813e-06       400000 
      0.0012    1.0100624    90.612938    95.158218      2.67467    67.253109    20.683578 5.3507688e-06       400000 
      0.0013    1.0083642    90.616783    95.154422    2.6894801    67.240852    20.684779 5.7337665e-06       400000 
      0.0014    1.0079841    90.621074    95.157003    2.7045475    67.228794    20.685967 6.1291633e-06       400000 
      0.0015    1.0090013     90.62583    95.166336    2.7198372    67.216998    20.687134 6.5362942e-06       400000 
      0.0016    1.0097361    90.631068     95.17488     2.735241    67.205552    20.688315 6.9398805e-06       400000 
      0.0017    1.0111384    90.636793    95.186916    2.7508233    67.194452    20.689459 7.3483192e-06       400000 
      0.0018     1.011741    90.643001    95.195835    2.7665735    67.183644    20.690623 7.7507961e-06       400000 
      0.0019    1.0117334    90.649695    95.202495    2.7825477    67.173101    20.691781 8.1503489e-06       400000 
       0.002    1.0125622    90.656869    95.213399    2.7986002    67.162968     20.69293 8.5532668e-06       400000 
      0.0021    1.0124682    90.664519    95.220626    2.8148937    67.153039    20.694108  8.95173e-06       400000 
      0.0022    1.0083187    90.672652    95.210086    2.8313459    67.143405    20.695314 9.3197679e-06       400000 
      0.0023    1.0033398    90.681243    95.196272    2.8478825    67.134156    20.696508 9.6791117e-06       400000 
      0.0024    1.0012679    90.690295    95.196001    2.8645135    67.125297    20.697678 1.0058251e-05       400000 
      0.0025    1.0025132    90.699811     95.21112    2.8812463    67.116746    20.698897 1.0460934e-05       400000 
      0.0026    1.0037047    90.709832    95.226503    2.8981529    67.108517    20.700126 1.0863294e-05       400000 
      0.0027    1.0003228    90.720301    95.221754    2.9151623     67.10064    20.701347 1.1229496e-05       400000 
      0.0028   0.99530451    90.731219    95.210089    2.9323404    67.093067    20.702542 1.1583458e-05       400000 
      0.0029   0.99018232    90.742595    95.198415    2.9496072    67.085884    20.703717 1.1934228e-05       400000 
       0.003   0.98679266    90.754387    95.194954    2.9670705    67.078947    20.704866 1.2298973e-05       400000 
      0.0031   0.98676174    90.766658    95.207086    2.9847841    67.072256    20.705995 1.2691098e-05       400000 
      0.0032   0.98563403     90.77941    95.214763    3.0026425     67.06591    20.707115 1.3074006e-05       400000 
      0.0033   0.98313399    90.792585    95.216688    3.0207319    67.059732    20.708258 1.3449162e-05       400000 
      0.0034   0.98014007    90.806232    95.216863    3.0389664    67.053875    20.709405 1.3820353e-05       400000 
      0.0035   0.97603228    90.820298    95.212443    3.0573388    67.048295    20.710556 1.4182702e-05       400000 
      0.0036   0.97099028    90.834785    95.204241    3.0758959     67.04297    20.711687 1.4538542e-05       400000 
      0.0037   0.96627206    90.849693    95.197917    3.0945939    67.037885    20.712853 1.4897202e-05       400000 
      0.0038   0.96072531     90.86503    95.188294    3.1134692    67.033047    20.714025 1.5250214e-05       400000 
      0.0039   0.95604778    90.880767    95.182982    3.1323665    67.028569    20.715212 1.560664e-05       400000 
       0.004   0.95486075    90.896938    95.193811    3.1514667     67.02435    20.716368 1.5990391e-05       400000 
      0.0041    0.9536282    90.913539    95.204866    3.1707747    67.020395    20.717484 1.637494e-05       400000 
      0.0042   0.95093062    90.930595    95.209783    3.1902236    67.016764    20.718589 1.6747596e-05       400000 
      0.0043   0.94778104     90.94805    95.213064    3.2099005    67.013307    20.719686 1.7118947e-05       400000 
      0.0044    0.9443251    90.965921    95.215384    3.2297576    67.010085    20.720785 1.7488787e-05       400000 
      0.0045   0.93989191    90.984209    95.213723    3.2497649    67.007168    20.721846 1.7850802e-05       400000 
      0.0046   0.93620879    91.002882    95.215822    3.2698182    67.004531    20.722961 1.8216398e-05       400000 
      0.0047   0.93256296    91.021971    95.218504    3.2901178    67.002103     20.72404 1.8584707e-05       400000 
      0.0048   0.92784034    91.041461    95.216743      3.31063    66.999827    20.725157 1.8947302e-05       400000 
      0.0049   0.92375571    91.061315    95.218215    3.3312874     66.99775    20.726292 1.9315098e-05       400000 
       0.005    0.9190907    91.081577    95.217485    3.3521531    66.995887    20.727411 1.967995e-05       400000 
      0.0051   0.91324428    91.102213    95.211812    3.3731928    66.994207    20.728545 2.0037507e-05       400000 
      0.0052   0.90696245    91.123181    95.204512    3.3943931    66.992711    20.729665 2.0392583e-05       400000 
      0.0053   0.90107298    91.144508    95.199336    3.4157466    66.991435    20.730768 2.0751127e-05       400000 
      0.0054   0.89778151      91.1662    95.206217    3.4371708    66.990422    20.731901 2.1128055e-05       400000 
      0.0055   0.89478688    91.188289     95.21483    3.4587587    66.989614    20.733059 2.1507898e-05       400000 
      0.0056   0.89092036    91.210747    95.219889    3.4806101    66.988936    20.734193 2.1884601e-05       400000 
      0.0057   0.88808415    91.233572    95.229951    3.5025965    66.988497    20.735318 2.2269021e-05       400000 
      0.0058   0.88561341    91.256797    95.242058    3.5246447    66.988427    20.736412 2.2653505e-05       400000 
      0.0059   0.88137182    91.280406    95.246579    3.5468081    66.988629    20.737499 2.3023828e-05       400000 
       0.006   0.87595898    91.304363    95.246178    3.5690082    66.989169    20.738559 2.3382659e-05       400000 
      0.0061   0.86895443    91.328694    95.238989    3.5913224    66.989909    20.739676 2.3729736e-05       400000 
      0.0062   0.86212126     91.35329    95.232835    3.6137608    66.990868    20.740719 2.4078019e-05       400000 
      0.0063    0.8580691    91.378187    95.239498    3.6363726    66.991949    20.741768 2.4448868e-05       400000 
      0.0064    0.8543421    91.403457    95.247997    3.6590993     66.99328    20.742821 2.4821852e-05       400000 
      0.0065   0.84941655    91.429083    95.251457    3.6820128    66.994772    20.743877 2.5187647e-05       400000 
      0.0066   0.84373089    91.455033    95.251822    3.7050056     66.99648    20.744958 2.5547229e-05       400000 
      0.0067   0.83852181    91.481294    95.254642    3.7282024    66.998317    20.746017 2.5912426e-05       400000 
      0.0068   0.83416452    91.507853    95.261594    3.7515181    67.000357    20.747049 2.6284216e-05       400000 
      0.0069   0.83154572    91.534726    95.276682    3.7749138    67.002669    20.748045 2.6667882e-05       400000 
       0.007   0.82706985    91.561955    95.283769     3.798524    67.005093    20.749071 2.7040334e-05       400000 
      0.0071    0.8205722    91.589427    95.282002    3.8220049    67.007826    20.750156 2.739229e-05       400000 
      0.0072   0.81292257    91.617184    95.275336    3.8454655    67.010869    20.751233 2.7731958e-05       400000 
      0.0073   0.80730026    91.645103    95.277955    3.8689455    67.014052    20.752313 2.8085686e-05       400000 
      0.0074   0.80513124    91.673326    95.296417    3.8925631    67.017378    20.753412 2.8466391e-05       400000 
      0.0075   0.80046717    91.701895    95.303997     3.916262    67.020906    20.754568 2.8827717e-05       400000 
      0.0076   0.79243196     91.73073    95.296674    3.9399315    67.024755    20.755697 2.9159781e-05       400000 
      0.0077   0.78295861    91.759685    95.282999    3.9635742      67.0288    20.756782  2.94785e-05       400000 
      0.0078   0.77440408    91.788818    95.273637    3.9872552    67.033003    20.757847 2.9803322e-05       400000 
      0.0079   0.76731428    91.818188    95.271102    4.0109319    67.037454    20.758905 3.0136544e-05       400000 
       0.008   0.76077754    91.847797    95.271296    4.0346354    67.042164    20.759922 3.0471483e-05       400000 
      0.0081   0.75565602    91.877637    95.278089    4.0584228    67.046992     20.76097 3.0817223e-05       400000 
      0.0082   0.75091076    91.907712    95.286811    4.0821562    67.052137    20.761991 3.1161591e-05       400000 
      0.0083   0.74621237    91.937958    95.295914    4.1059838    67.057386    20.762983 3.1506685e-05       400000 
      0.0084   0.74178911    91.968479     95.30653     4.129816    67.062884    20.763995 3.1851384e-05       400000 
      0.0085   0.73618054     91.99919    95.312002    4.1536335    67.068568    20.765024 3.2185077e-05       400000 
      0.0086   0.73226135    92.030045    95.325222    4.1775928     67.07428     20.76603 3.2533647e-05       400000 
      0.0087   0.72759112    92.061124    95.335284    4.2015985    67.080209    20.766998 3.287474e-05       400000 
      0.0088   0.72138097    92.092361    95.338575    4.2257116    67.086164    20.767988 3.3205892e-05       400000 
      0.0089   0.71632461     92.12378    95.347241    4.2497777    67.092347    20.768979 3.3542394e-05       400000 
       0.009   0.70904425    92.155435    95.346134    4.2738307    67.098769    20.769985 3.3859459e-05       400000 
      0.0091   0.70278259    92.187152    95.349674    4.2979117    67.105273    20.770945 3.4183909e-05       400000 
      0.0092   0.69722843    92.219114    95.356642    4.3220337    67.111971    20.771916 3.4512338e-05       400000 
      0.0093   0.68931794    92.251153    95.353083    4.3460641    67.118863    20.772864 3.4819424e-05       400000 
      0.0094   0.68209614     92.28332    95.352753     4.370002    67.126036    20.773759 3.5126996e-05       400000 
      0.0095   0.67568919    92.315646    95.356248    4.3939588    67.133369    20.774638 3.5439433e-05       400000 
      0.0096   0.66830164    92.348044    95.355401    4.4178962    67.140804    20.775507 3.5743153e-05       400000 
      0.0097   0.65842473      92.3804    95.343311    4.4417678      67.1483     20.77634 3.6026283e-05       400000 
      0.0098   0.64992694     92.41274    95.337411    4.4656054    67.155774    20.777214 3.631931e-05       400000 
      0.0099   0.64249872    92.445095    95.336339    4.4893671    67.163362    20.778065 3.6618206e-05       400000 
        0.01   0.63472153    92.477556    95.333803    4.5131768    67.171014    20.778912 3.6914506e-05       400000 
colvars: Saving collective variables state to "output.colvars.state".
Loop time of 0.00818113 on 1 procs for 100 steps with 4 atoms

Performance: 105608.909 tau/day, 12223.253 timesteps/s
24.9% CPU use with 1 MPI tasks x 1 OpenMP threads

MPI task timing breakdown:
Section |  min time  |  avg time  |  max time  |%varavg| %total
---------------------------------------------------------------
Pair    | 0.00035068 | 0.00035068 | 0.00035068 |   0.0 |  4.29
Bond    | 0.00026427 | 0.00026427 | 0.00026427 |   0.0 |  3.23
Neigh   | 0          | 0          | 0          |   0.0 |  0.00
Comm    | 3.836e-05  | 3.836e-05  | 3.836e-05  |   0.0 |  0.47
Output  | 0.0052493  | 0.0052493  | 0.0052493  |   0.0 | 64.16
Modify  | 0.002135   | 0.002135   | 0.002135   |   0.0 | 26.10
Other   |            | 0.0001435  |            |       |  1.75

Nlocal:    4 ave 4 max 4 min
Histogram: 1 0 0 0 0 0 0 0 0 0
Nghost:    0 ave 0 max 0 min
Histogram: 1 0 0 0 0 0 0 0 0 0
Neighs:    3 ave 3 max 3 min
Histogram: 1 0 0 0 0 0 0 0 0 0

Total # of neighbors = 3
Ave neighs/atom = 0.75
Ave special neighs/atom = 3
Neighbor list builds = 0
Dangerous builds = 0

colvars: Resetting the Collective Variables module.

Please see the log.cite file for references relevant to this simulation

Total wall time: 0:00:00
