LAMMPS homopolymer structure file 

12 atoms 
11 bonds 
10 angles 
9 dihedrals 

1 atom types 
1 bond types
1 angle types
1 dihedral types 

-53.132928 53.132928 xlo xhi 
-53.132928 53.132928 ylo yhi 
-53.132928 53.132928 zlo zhi 

Masses 

1 1.000000 

Atoms 

1 1 1 0.000000 -1.000000 -1.000000 -1.000000 
2 1 1 0.000000 0.000000 -1.000000 -1.000000 
3 1 1 0.000000 1.000000 -1.000000 -1.000000 
4 1 1 0.000000 1.000000 0.000000 -1.000000 
5 1 1 0.000000 0.000000 0.000000 -1.000000 
6 1 1 0.000000 -1.000000 0.000000 -1.000000 
7 1 1 0.000000 -1.000000 1.000000 -1.000000 
8 1 1 0.000000 0.000000 1.000000 -1.000000 
9 1 1 0.000000 1.000000 1.000000 -1.000000 
10 1 1 0.000000 1.000000 1.000000 0.000000 
11 1 1 0.000000 0.000000 1.000000 0.000000 
12 1 1 0.000000 -1.000000 1.000000 0.000000 

Bonds 

1 1 1 2 
2 1 2 3 
3 1 3 4 
4 1 4 5 
5 1 5 6 
6 1 6 7 
7 1 7 8 
8 1 8 9 
9 1 9 10 
10 1 10 11 
11 1 11 12 

Angles 

1 1 1 2 3 
2 1 2 3 4 
3 1 3 4 5 
4 1 4 5 6 
5 1 5 6 7 
6 1 6 7 8 
7 1 7 8 9 
8 1 8 9 10 
9 1 9 10 11 
10 1 10 11 12 

Dihedrals 

1 1 1 2 3 4
2 1 2 3 4 5
3 1 3 4 5 6
4 1 4 5 6 7
5 1 5 6 7 8
6 1 6 7 8 9
7 1 7 8 9 10
8 1 8 9 10 11
9 1 9 10 11 12

